 Data file for lammps generated from FIELD and CONFIG by dlpoly2lammps.x routine
 
         192     atoms
         112     bonds
         192     angles
         144     dihedrals
         0       impropers
 
           6 atom types
           7 bond types
          12 angle types
           9 dihedral types
 
0 12.3753 xlo xhi
0 12.3407 ylo yhi
0 70.7002 zlo zhi
#  0 0 0 xy xz yz
 
 Masses
 
           1   207.19999999999999     
           2   126.90000000000001     
           3   1.0000000000000000     
           4   14.000000000000000     
           5   12.000000000000000     
           6   1.0000000000000000     
 
 Bond Coeffs
 
           1   338.69999999999999        1.0910000000000000     
           2   338.69999999999999        1.0910000000000000     
           3   338.69999999999999        1.0910000000000000     
           4   369.00000000000006        1.0329999999999999     
           5   369.00000000000006        1.0329999999999999     
           6   369.00000000000006        1.0329999999999999     
           7   293.60000000000002        1.4990000000000001     
 
 Angle Coeffs
 
           1   39.000000000000000        110.73999691837884     
           2   39.000000000000000        110.73999691837884     
           3   39.000000000000000        110.73999691837884     
           4   46.200000000000010        110.10999693591019     
           5   40.500000000000007        108.10999699156525     
           6   46.200000000000010        110.10999693591019     
           7   40.500000000000007        108.10999699156525     
           8   40.500000000000007        108.10999699156525     
           9   46.200000000000010        110.10999693591019     
          10   49.000000000000000        107.90999699713075     
          11   49.000000000000000        107.90999699713075     
          12   49.000000000000000        107.90999699713075     
 
 Dihedral Coeffs
 
           1  0.15559999999999999                3           0   0.00000000    
           2  0.15559999999999999                3           0   0.00000000    
           3  0.15559999999999999                3           0   0.00000000    
           4  0.15559999999999999                3           0   0.00000000    
           5  0.15559999999999999                3           0   0.00000000    
           6  0.15559999999999999                3           0   0.00000000    
           7  0.15559999999999999                3           0   0.00000000    
           8  0.15559999999999999                3           0   0.00000000    
           9  0.15559999999999999                3           0   0.00000000    
 
 Atoms
 
           1           1           1   1.5220000000000000       0.81698000000000004        4.6133900000000008        4.5208100000000000     
           2           2           1   1.5220000000000000        7.0046299999999997        4.6133900000000008        4.5208100000000000     
           3           3           1   1.5220000000000000       0.81698000000000004        10.783700000000000        4.5208100000000000     
           4           4           1   1.5220000000000000        7.0046299999999997        10.783700000000000        4.5208100000000000     
           5           5           1   1.5220000000000000       0.81698000000000004        4.6133900000000008        10.755800000000001     
           6           6           1   1.5220000000000000        7.0046299999999997        4.6133900000000008        10.755800000000001     
           7           7           1   1.5220000000000000       0.81698000000000004        10.783700000000000        10.755800000000001     
           8           8           1   1.5220000000000000        7.0046299999999997        10.783700000000000        10.755800000000001     
           9           9           1   1.5220000000000000        2.0223499999999999        2.5371600000000005        14.160299999999999     
          10          10           1   1.5220000000000000        10.022300000000000        2.5371600000000005        14.160299999999999     
          11          11           1   1.5220000000000000        2.5223499999999999        3.0371600000000005        20.160299999999999     
          12          12           1   1.5220000000000000        10.522300000000000        3.0371600000000005        20.160299999999999     
          13          13           1   1.5220000000000000        3.0223499999999999        3.5371600000000005        26.160299999999999     
          14          14           1   1.5220000000000000        11.022300000000000        3.5371600000000005        26.160299999999999     
          15          15           1   1.5220000000000000        3.5223499999999999        4.0371600000000001        32.160299999999999     
          16          16           1   1.5220000000000000        11.522300000000000        4.0371600000000001        32.160299999999999     
          17          17           2 -0.84699999999999998       0.71513000000000004        4.6177300000000008        7.6381900000000007     
          18          18           2 -0.84699999999999998       0.75207000000000002        1.5278200000000002        4.5459300000000002     
          19          19           2 -0.84699999999999998        3.8768799999999994        4.6085500000000010        4.5173600000000000     
          20          20           2 -0.84699999999999998        6.9027799999999999        4.6177300000000008        7.6381900000000007     
          21          21           2 -0.84699999999999998        6.9397200000000003        1.5278200000000002        4.5459300000000002     
          22          22           2 -0.84699999999999998        10.064500000000001        4.6085500000000010        4.5173600000000000     
          23          23           2 -0.84699999999999998       0.71513000000000004        10.788100000000002        7.6381900000000007     
          24          24           2 -0.84699999999999998       0.75207000000000002        7.6981500000000009        4.5459300000000002     
          25          25           2 -0.84699999999999998        3.8768799999999994        10.778900000000002        4.5173600000000000     
          26          26           2 -0.84699999999999998        6.9027799999999999        10.788100000000002        7.6381900000000007     
          27          27           2 -0.84699999999999998        6.9397200000000003        7.6981500000000009        4.5459300000000002     
          28          28           2 -0.84699999999999998        10.064500000000001        10.778900000000002        4.5173600000000000     
          29          29           2 -0.84699999999999998       0.71513000000000004        4.6177300000000008        1.4031800000000003     
          30          30           2 -0.84699999999999998       0.75207000000000002        1.5278200000000002        10.780900000000001     
          31          31           2 -0.84699999999999998        3.8768799999999994        4.6085500000000010        10.752400000000000     
          32          32           2 -0.84699999999999998        6.9027799999999999        4.6177300000000008        1.4031800000000003     
          33          33           2 -0.84699999999999998        6.9397200000000003        1.5278200000000002        10.780900000000001     
          34          34           2 -0.84699999999999998        10.064500000000001        4.6085500000000010        10.752400000000000     
          35          35           2 -0.84699999999999998       0.71513000000000004        10.788100000000002        1.4031800000000003     
          36          36           2 -0.84699999999999998       0.75207000000000002        7.6981500000000009        10.780900000000001     
          37          37           2 -0.84699999999999998        3.8768799999999994        10.778900000000002        10.752400000000000     
          38          38           2 -0.84699999999999998        6.9027799999999999        10.788100000000002        1.4031800000000003     
          39          39           2 -0.84699999999999998        6.9397200000000003        7.6981500000000009        10.780900000000001     
          40          40           2 -0.84699999999999998        10.064500000000001        10.778900000000002        10.752400000000000     
          41          41           2 -0.84699999999999998        2.0221200000000001        1.1811600000000002        16.810500000000001     
          42          42           2 -0.84699999999999998        4.3175800000000004        3.8931600000000004        15.485200000000001     
          43          43           2 -0.84699999999999998        2.3198300000000001        7.0693200000000012        16.456099999999999     
          44          44           2 -0.84699999999999998        10.022100000000000        1.1811600000000002        16.810500000000001     
          45          45           2 -0.84699999999999998        12.317600000000001        3.8931600000000004        15.485200000000001     
          46          46           2 -0.84699999999999998        10.319800000000001        7.0693200000000012        16.456099999999999     
          47          47           2 -0.84699999999999998        2.5221200000000001        1.6811600000000002        22.810500000000001     
          48          48           2 -0.84699999999999998        4.8175800000000004        4.3931600000000000        21.485200000000003     
          49          49           2 -0.84699999999999998        2.8198300000000001        7.5693200000000012        22.456099999999999     
          50          50           2 -0.84699999999999998        10.522100000000000        1.6811600000000002        22.810500000000001     
          51          51           2 -0.84699999999999998        12.817600000000001        4.3931600000000000        21.485200000000003     
          52          52           2 -0.84699999999999998        10.819800000000001        7.5693200000000012        22.456099999999999     
          53          53           2 -0.84699999999999998        3.0221200000000001        2.1811600000000002        28.810500000000001     
          54          54           2 -0.84699999999999998        5.3175800000000004        4.8931600000000000        27.485200000000003     
          55          55           2 -0.84699999999999998        3.3198300000000001        8.0693200000000012        28.456099999999999     
          56          56           2 -0.84699999999999998        11.022100000000000        2.1811600000000002        28.810500000000001     
          57          57           2 -0.84699999999999998        13.317600000000001        4.8931600000000000        27.485200000000003     
          58          58           2 -0.84699999999999998        11.319800000000001        8.0693200000000012        28.456099999999999     
          59          59           2 -0.84699999999999998        3.5221200000000001        2.6811600000000007        34.810499999999998     
          60          60           2 -0.84699999999999998        5.8175800000000004        5.3931600000000008        33.485199999999999     
          61          61           2 -0.84699999999999998        3.8198300000000001        8.5693199999999994        34.456099999999999     
          62          62           2 -0.84699999999999998        11.522100000000000        2.6811600000000007        34.810499999999998     
          63          63           2 -0.84699999999999998        13.817600000000001        5.3931600000000008        33.485199999999999     
          64          64           2 -0.84699999999999998        11.819800000000001        8.5693199999999994        34.456099999999999     
          65          65           3  0.40500000000000003        5.4095199999999997       0.69489999999999996        7.5140600000000006     
          66          65           3  0.40500000000000003        5.4053800000000001        2.3734999999999999        7.5134200000000000     
          67          65           3  0.40500000000000003        5.0236099999999997        1.5337400000000001        8.9109099999999994     
          68          65           4 -0.82499999999999996        4.9288100000000004        1.5331999999999999        7.8814800000000007     
          69          65           5  0.57799999999999996        3.4895200000000002        1.5296400000000003        7.4838699999999996     
          70          65           6   1.7000000000000001E-002   3.4419100000000000        1.5295500000000002        6.3941600000000003     
          71          65           6   1.7000000000000001E-002   3.0296300000000000       0.63033000000000006        7.8952200000000010     
          72          65           6   1.7000000000000001E-002   3.0254799999999999        2.4270100000000001        7.8947900000000013     
          73          66           3  0.40500000000000003        11.597200000000001       0.69489999999999996        7.5140600000000006     
          74          66           3  0.40500000000000003        11.592999999999998        2.3734999999999999        7.5134200000000000     
          75          66           3  0.40500000000000003        11.211300000000000        1.5337400000000001        8.9109099999999994     
          76          66           4 -0.82499999999999996        11.116500000000000        1.5331999999999999        7.8814800000000007     
          77          66           5  0.57799999999999996        9.6771700000000003        1.5296400000000003        7.4838699999999996     
          78          66           6   1.7000000000000001E-002   9.6295599999999997        1.5295500000000002        6.3941600000000003     
          79          66           6   1.7000000000000001E-002   9.2172699999999992       0.63033000000000006        7.8952200000000010     
          80          66           6   1.7000000000000001E-002   9.2131299999999996        2.4270100000000001        7.8947900000000013     
          81          67           3  0.40500000000000003        5.4095199999999997        6.8652300000000013        7.5140600000000006     
          82          67           3  0.40500000000000003        5.4053800000000001        8.5438300000000016        7.5134200000000000     
          83          67           3  0.40500000000000003        5.0236099999999997        7.7040700000000006        8.9109099999999994     
          84          67           4 -0.82499999999999996        4.9288100000000004        7.7035300000000007        7.8814800000000007     
          85          67           5  0.57799999999999996        3.4895200000000002        7.6999600000000008        7.4838699999999996     
          86          67           6   1.7000000000000001E-002   3.4419100000000000        7.6998800000000012        6.3941600000000003     
          87          67           6   1.7000000000000001E-002   3.0296300000000000        6.8006600000000006        7.8952200000000010     
          88          67           6   1.7000000000000001E-002   3.0254799999999999        8.5973400000000009        7.8947900000000013     
          89          68           3  0.40500000000000003        11.597200000000001        6.8652300000000013        7.5140600000000006     
          90          68           3  0.40500000000000003        11.592999999999998        8.5438300000000016        7.5134200000000000     
          91          68           3  0.40500000000000003        11.211300000000000        7.7040700000000006        8.9109099999999994     
          92          68           4 -0.82499999999999996        11.116500000000000        7.7035300000000007        7.8814800000000007     
          93          68           5  0.57799999999999996        9.6771700000000003        7.6999600000000008        7.4838699999999996     
          94          68           6   1.7000000000000001E-002   9.6295599999999997        7.6998800000000012        6.3941600000000003     
          95          68           6   1.7000000000000001E-002   9.2172699999999992        6.8006600000000006        7.8952200000000010     
          96          68           6   1.7000000000000001E-002   9.2131299999999996        8.5973400000000009        7.8947900000000013     
          97          69           3  0.40500000000000003        5.4095199999999997       0.69489999999999996        1.2790800000000000     
          98          69           3  0.40500000000000003        5.4053800000000001        2.3734999999999999        1.2783800000000001     
          99          69           3  0.40500000000000003        5.0236099999999997        1.5337400000000001        2.6758799999999998     
         100          69           4 -0.82499999999999996        4.9288100000000004        1.5331999999999999        1.6464799999999999     
         101          69           5  0.57799999999999996        3.4895200000000002        1.5296400000000003        1.2488800000000002     
         102          69           6   1.7000000000000001E-002   3.4419100000000000        1.5295500000000002       0.15917999999999999     
         103          69           6   1.7000000000000001E-002   3.0296300000000000       0.63033000000000006        1.6601800000000000     
         104          69           6   1.7000000000000001E-002   3.0254799999999999        2.4270100000000001        1.6597800000000003     
         105          70           3  0.40500000000000003        11.597200000000001       0.69489999999999996        1.2790800000000000     
         106          70           3  0.40500000000000003        11.592999999999998        2.3734999999999999        1.2783800000000001     
         107          70           3  0.40500000000000003        11.211300000000000        1.5337400000000001        2.6758799999999998     
         108          70           4 -0.82499999999999996        11.116500000000000        1.5331999999999999        1.6464799999999999     
         109          70           5  0.57799999999999996        9.6771700000000003        1.5296400000000003        1.2488800000000002     
         110          70           6   1.7000000000000001E-002   9.6295599999999997        1.5295500000000002       0.15917999999999999     
         111          70           6   1.7000000000000001E-002   9.2172699999999992       0.63033000000000006        1.6601800000000000     
         112          70           6   1.7000000000000001E-002   9.2131299999999996        2.4270100000000001        1.6597800000000003     
         113          71           3  0.40500000000000003        5.4095199999999997        6.8652300000000013        1.2790800000000000     
         114          71           3  0.40500000000000003        5.4053800000000001        8.5438300000000016        1.2783800000000001     
         115          71           3  0.40500000000000003        5.0236099999999997        7.7040700000000006        2.6758799999999998     
         116          71           4 -0.82499999999999996        4.9288100000000004        7.7035300000000007        1.6464799999999999     
         117          71           5  0.57799999999999996        3.4895200000000002        7.6999600000000008        1.2488800000000002     
         118          71           6   1.7000000000000001E-002   3.4419100000000000        7.6998800000000012       0.15917999999999999     
         119          71           6   1.7000000000000001E-002   3.0296300000000000        6.8006600000000006        1.6601800000000000     
         120          71           6   1.7000000000000001E-002   3.0254799999999999        8.5973400000000009        1.6597800000000003     
         121          72           3  0.40500000000000003        11.597200000000001        6.8652300000000013        1.2790800000000000     
         122          72           3  0.40500000000000003        11.592999999999998        8.5438300000000016        1.2783800000000001     
         123          72           3  0.40500000000000003        11.211300000000000        7.7040700000000006        2.6758799999999998     
         124          72           4 -0.82499999999999996        11.116500000000000        7.7035300000000007        1.6464799999999999     
         125          72           5  0.57799999999999996        9.6771700000000003        7.6999600000000008        1.2488800000000002     
         126          72           6   1.7000000000000001E-002   9.6295599999999997        7.6998800000000012       0.15917999999999999     
         127          72           6   1.7000000000000001E-002   9.2172699999999992        6.8006600000000006        1.6601800000000000     
         128          72           6   1.7000000000000001E-002   9.2131299999999996        8.5973400000000009        1.6597800000000003     
         129          73           3  0.40500000000000003        5.7354300000000000        7.5089000000000006        17.855399999999999     
         130          73           3  0.40500000000000003        4.8221200000000000        8.7815100000000026        18.565600000000000     
         131          73           3  0.40500000000000003        4.1386500000000002        7.7308500000000020        17.494300000000003     
         132          73           4 -0.82499999999999996        5.0431400000000002        8.2495600000000007        17.720300000000002     
         133          73           5  0.57799999999999996        5.2465599999999997        9.0821400000000025        16.495000000000005     
         134          73           6   1.7000000000000001E-002   4.3781800000000004        9.7340599999999995        16.376600000000000     
         135          73           6   1.7000000000000001E-002   6.1569700000000003        9.6709200000000024        16.623300000000004     
         136          73           6   1.7000000000000001E-002   5.3370699999999998        8.4116400000000002        15.637499999999999     
         137          74           3  0.40500000000000003        13.735400000000000        7.5089000000000006        17.855399999999999     
         138          74           3  0.40500000000000003        12.822100000000001        8.7815100000000026        18.565600000000000     
         139          74           3  0.40500000000000003        12.138600000000000        7.7308500000000020        17.494300000000003     
         140          74           4 -0.82499999999999996        13.043100000000001        8.2495600000000007        17.720300000000002     
         141          74           5  0.57799999999999996        13.246600000000001        9.0821400000000025        16.495000000000005     
         142          74           6   1.7000000000000001E-002   12.378200000000000        9.7340599999999995        16.376600000000000     
         143          74           6   1.7000000000000001E-002   14.157000000000000        9.6709200000000024        16.623300000000004     
         144          74           6   1.7000000000000001E-002   13.337100000000000        8.4116400000000002        15.637499999999999     
         145          75           3  0.40500000000000003        6.2354300000000000        8.0089000000000006        23.855400000000003     
         146          75           3  0.40500000000000003        5.3221200000000000        9.2815100000000008        24.565600000000003     
         147          75           3  0.40500000000000003        4.6386500000000002        8.2308500000000002        23.494299999999999     
         148          75           4 -0.82499999999999996        5.5431400000000002        8.7495600000000024        23.720300000000005     
         149          75           5  0.57799999999999996        5.7465599999999997        9.5821400000000025        22.495000000000005     
         150          75           6   1.7000000000000001E-002   4.8781800000000004        10.234100000000002        22.376600000000003     
         151          75           6   1.7000000000000001E-002   6.6569700000000003        10.170900000000001        22.623300000000004     
         152          75           6   1.7000000000000001E-002   5.8370699999999998        8.9116400000000020        21.637499999999999     
         153          76           3  0.40500000000000003        14.235400000000000        8.0089000000000006        23.855400000000003     
         154          76           3  0.40500000000000003        13.322100000000001        9.2815100000000008        24.565600000000003     
         155          76           3  0.40500000000000003        12.638600000000000        8.2308500000000002        23.494299999999999     
         156          76           4 -0.82499999999999996        13.543100000000001        8.7495600000000024        23.720300000000005     
         157          76           5  0.57799999999999996        13.746600000000001        9.5821400000000025        22.495000000000005     
         158          76           6   1.7000000000000001E-002   12.878200000000000        10.234100000000002        22.376600000000003     
         159          76           6   1.7000000000000001E-002   14.657000000000000        10.170900000000001        22.623300000000004     
         160          76           6   1.7000000000000001E-002   13.837100000000000        8.9116400000000020        21.637499999999999     
         161          77           3  0.40500000000000003        6.7354300000000000        8.5089000000000024        29.855400000000003     
         162          77           3  0.40500000000000003        5.8221200000000000        9.7815100000000026        30.565600000000003     
         163          77           3  0.40500000000000003        5.1386500000000002        8.7308500000000020        29.494299999999999     
         164          77           4 -0.82499999999999996        6.0431400000000002        9.2495600000000007        29.720300000000005     
         165          77           5  0.57799999999999996        6.2465599999999997        10.082100000000002        28.495000000000005     
         166          77           6   1.7000000000000001E-002   5.3781800000000004        10.734100000000002        28.376600000000003     
         167          77           6   1.7000000000000001E-002   7.1569700000000003        10.670900000000001        28.623300000000004     
         168          77           6   1.7000000000000001E-002   6.3370699999999998        9.4116400000000020        27.637499999999999     
         169          78           3  0.40500000000000003        14.735400000000000        8.5089000000000024        29.855400000000003     
         170          78           3  0.40500000000000003        13.822100000000001        9.7815100000000026        30.565600000000003     
         171          78           3  0.40500000000000003        13.138600000000000        8.7308500000000020        29.494299999999999     
         172          78           4 -0.82499999999999996        14.043100000000001        9.2495600000000007        29.720300000000005     
         173          78           5  0.57799999999999996        14.246600000000001        10.082100000000002        28.495000000000005     
         174          78           6   1.7000000000000001E-002   13.378200000000000        10.734100000000002        28.376600000000003     
         175          78           6   1.7000000000000001E-002   15.157000000000000        10.670900000000001        28.623300000000004     
         176          78           6   1.7000000000000001E-002   14.337100000000000        9.4116400000000020        27.637499999999999     
         177          79           3  0.40500000000000003        7.2354300000000000        9.0089000000000006        35.855400000000003     
         178          79           3  0.40500000000000003        6.3221200000000000        10.281500000000001        36.565600000000003     
         179          79           3  0.40500000000000003        5.6386500000000002        9.2308500000000002        35.494300000000003     
         180          79           4 -0.82499999999999996        6.5431400000000002        9.7495600000000024        35.720300000000002     
         181          79           5  0.57799999999999996        6.7465599999999997        10.582100000000002        34.494999999999997     
         182          79           6   1.7000000000000001E-002   5.8781800000000004        11.234100000000000        34.376600000000003     
         183          79           6   1.7000000000000001E-002   7.6569700000000003        11.170900000000001        34.623300000000008     
         184          79           6   1.7000000000000001E-002   6.8370699999999998        9.9116400000000002        33.637500000000003     
         185          80           3  0.40500000000000003        15.235400000000000        9.0089000000000006        35.855400000000003     
         186          80           3  0.40500000000000003        14.322100000000001        10.281500000000001        36.565600000000003     
         187          80           3  0.40500000000000003        13.638600000000000        9.2308500000000002        35.494300000000003     
         188          80           4 -0.82499999999999996        14.543100000000001        9.7495600000000024        35.720300000000002     
         189          80           5  0.57799999999999996        14.746600000000001        10.582100000000002        34.494999999999997     
         190          80           6   1.7000000000000001E-002   13.878200000000000        11.234100000000000        34.376600000000003     
         191          80           6   1.7000000000000001E-002   15.657000000000000        11.170900000000001        34.623300000000008     
         192          80           6   1.7000000000000001E-002   14.837100000000000        9.9116400000000002        33.637500000000003     
 
 Bonds
 
           1           1          69          70
           2           2          69          71
           3           3          69          72
           4           4          68          65
           5           5          68          66